                               Psi4 1.5 release

  ==> Input File <==

--------------------------------------------------------------------------
#
#   Psi4 Calculation input file
#
#
memory 2000 mb

molecule {
 no_com
 0 1
 C      -1.829     0.113     0.485
 C      -0.457     0.585     0.068
 C       0.600    -0.430    -0.085
 C      -0.261     1.898    -0.167
 C       0.180    -1.864    -0.298
 C       1.917    -0.144    -0.020
 H      -2.317    -0.432    -0.327
 H      -2.489     0.947     0.755
 H      -1.776    -0.535     1.361
 H       0.688     2.300    -0.493
 H      -1.062     2.615    -0.052
 H      -0.277    -2.277     0.610
 H       1.022    -2.511    -0.554
 H      -0.541    -1.947    -1.119
 H       2.667    -0.916    -0.129
 H       2.291     0.855     0.156
symmetry c1
}
set {
 basis 6-31G*
 geom_maxiter 200
 reference RHF
 WRITER_FILE_LABEL Psi4
 NORMAL_MODES_WRITE true
}
E, wfn = optimize('B3LYP', return_wfn=True)
wfn.write_molden('Psi4.molden')
oeprop(wfn, 'DIPOLE', 'QUADRUPOLE', 'MULTIPOLE(4)', 'MO_EXTENTS', 'MULLIKEN_CHARGES', 'LOWDIN_CHARGES', 'WIBERG_LOWDIN_INDICES', 'MAYER_INDICES', 'NO_OCCUPATIONS')
print_variables()
scf_e, scf_wfn = frequencies('B3LYP', return_wfn=True, dertype=1)

--------------------------------------------------------------------------

    Molecular point group: c1
  Charge       = 0
  Multiplicity = 1
  Basis Set: 6-31G*
    Blend: 6-31G*
  Basis Set: (6-31G* AUX)
    Blend: CC-PVDZ-JKFIT
  @DF-RKS Final Energy:  -234.61990100042098
    Total Energy =                       -234.6199010004209811
    Molecular point group: c1
  Basis Set: 6-31G*
    Blend: 6-31G*
  Basis Set: (6-31G* AUX)
    Blend: CC-PVDZ-JKFIT
  Basis Set: 6-31G*
    Blend: 6-31G*
  Basis Set: (6-31G* AUX)
    Blend: CC-PVDZ-JKFIT
  @DF-RKS Final Energy:  -234.62177597530419
    Total Energy =                       -234.6217759753041605
  Basis Set: 6-31G*
    Blend: 6-31G*
  Basis Set: (6-31G* AUX)
    Blend: CC-PVDZ-JKFIT
  Basis Set: 6-31G*
    Blend: 6-31G*
  @DF-RKS Final Energy:  -234.62237390480743
    Total Energy =                       -234.6223739048074606
  @DF-RKS Final Energy:  -234.62274209361922
    Total Energy =                       -234.6227420936192516
  @DF-RKS Final Energy:  -234.62276969253165
    Total Energy =                       -234.6227696925316479
  @DF-RKS Final Energy:  -234.62277093333913
    Total Energy =                       -234.6227709333391260
  @DF-RKS Final Energy:  -234.62277136558933
    Total Energy =                       -234.6227713655893297
  **** Optimization is complete! (in 7 steps) ****
    Final optimized geometry and variables:
 Dipole X            :          1.7153101           -1.8930483           -0.1777382
 Dipole Y            :          2.1556388           -2.3357684           -0.1801296
 Dipole Z            :         -0.2241857            0.2442117            0.0200261

  Lowdin Charges: (a.u.)
   Center  Symbol    Alpha    Beta     Spin     Total
       1     C     3.21332  3.21332  0.00000 -0.42664
       2     C     2.99564  2.99564  0.00000  0.00871
       3     C     2.99552  2.99552  0.00000  0.00897
       4     C     3.17048  3.17048  0.00000 -0.34095
       5     C     3.21301  3.21301  0.00000 -0.42602
       6     C     3.17075  3.17075  0.00000 -0.34151
       7     H     0.42435  0.42435  0.00000  0.15129
       8     H     0.42387  0.42387  0.00000  0.15226
       9     H     0.42350  0.42350  0.00000  0.15301
      10     H     0.42277  0.42277  0.00000  0.15447
      11     H     0.42612  0.42612  0.00000  0.14777
      12     H     0.42435  0.42435  0.00000  0.15130
      13     H     0.42389  0.42389  0.00000  0.15223
      14     H     0.42382  0.42382  0.00000  0.15235
      15     H     0.42617  0.42617  0.00000  0.14767
      16     H     0.42246  0.42246  0.00000  0.15509

  Total alpha = 23.00000, Total beta = 23.00000, Total charge =  0.00000

  @DF-RKS Final Energy:  -234.62277136558868
    Total Energy =                       -234.6227713655886760
  @DF-RKS Final Energy:  -234.62277136558868
    Total Energy =                       -234.6227713655886760
  @DF-RKS Final Energy:  -234.62277063197990
    Total Energy =                       -234.6227706319798756
  @DF-RKS Final Energy:  -234.62277080281910
    Total Energy =                       -234.6227708028190762
  @DF-RKS Final Energy:  -234.62277046480381
    Total Energy =                       -234.6227704648037786
  @DF-RKS Final Energy:  -234.62277045297390
    Total Energy =                       -234.6227704529738674
  @DF-RKS Final Energy:  -234.62277030561216
    Total Energy =                       -234.6227703056121641
  @DF-RKS Final Energy:  -234.62277037276823
    Total Energy =                       -234.6227703727682012
  @DF-RKS Final Energy:  -234.62277084533432
    Total Energy =                       -234.6227708453343439
  @DF-RKS Final Energy:  -234.62277072425505
    Total Energy =                       -234.6227707242550480
  @DF-RKS Final Energy:  -234.62277036576933
    Total Energy =                       -234.6227703657693269
  @DF-RKS Final Energy:  -234.62277038339829
    Total Energy =                       -234.6227703833982901
  @DF-RKS Final Energy:  -234.62277096263793
    Total Energy =                       -234.6227709626379010
  @DF-RKS Final Energy:  -234.62277099181577
    Total Energy =                       -234.6227709918157984
  @DF-RKS Final Energy:  -234.62277108946157
    Total Energy =                       -234.6227710894615655
  @DF-RKS Final Energy:  -234.62276861607157
    Total Energy =                       -234.6227686160715677
  @DF-RKS Final Energy:  -234.62276878487032
    Total Energy =                       -234.6227687848703454
  @DF-RKS Final Energy:  -234.62276996383272
    Total Energy =                       -234.6227699638326953
  @DF-RKS Final Energy:  -234.62276985726220
    Total Energy =                       -234.6227698572621989
  @DF-RKS Final Energy:  -234.62276907628194
    Total Energy =                       -234.6227690762819407
  @DF-RKS Final Energy:  -234.62276887455155
    Total Energy =                       -234.6227688745515536
  @DF-RKS Final Energy:  -234.62276924006252
    Total Energy =                       -234.6227692400625529
  @DF-RKS Final Energy:  -234.62276916156540
    Total Energy =                       -234.6227691615654010
  @DF-RKS Final Energy:  -234.62276941269954
    Total Energy =                       -234.6227694126995402
  @DF-RKS Final Energy:  -234.62276939346788
    Total Energy =                       -234.6227693934678769
  @DF-RKS Final Energy:  -234.62277045719466
    Total Energy =                       -234.6227704571946333
  @DF-RKS Final Energy:  -234.62277044988076
    Total Energy =                       -234.6227704498807896
  @DF-RKS Final Energy:  -234.62276903155609
    Total Energy =                       -234.6227690315560892
  @DF-RKS Final Energy:  -234.62276911111312
    Total Energy =                       -234.6227691111131151
  @DF-RKS Final Energy:  -234.62276894912932
    Total Energy =                       -234.6227689491293518
  @DF-RKS Final Energy:  -234.62276898240117
    Total Energy =                       -234.6227689824011691
  Basis Set: (6-31G* AUX)
    Blend: CC-PVDZ-JKFIT
  Basis Set: 6-31G*
    Blend: 6-31G*
  Basis Set: (6-31G* AUX)
    Blend: CC-PVDZ-JKFIT
  @DF-RKS Final Energy:  -234.62276773020685
    Total Energy =                       -234.6227677302068457
  Basis Set: 6-31G*
    Blend: 6-31G*
  Basis Set: (6-31G* AUX)
    Blend: CC-PVDZ-JKFIT
    Molecular point group: c1
  Charge       = 0
  Multiplicity = 1
  Basis Set: 6-31G*
    Blend: 6-31G*
  Basis Set: (6-31G* AUX)
    Blend: CC-PVDZ-JKFIT

    Orbital Energies [Eh]
    ---------------------

    Doubly Occupied:

       1A    -10.193980     2A    -10.193699     3A    -10.181132
       4A    -10.181126     5A    -10.171918     6A    -10.171616
       7A     -0.821359     8A     -0.750579     9A     -0.693496
      10A     -0.668142    11A     -0.585906    12A     -0.495758
      13A     -0.469112    14A     -0.440811    15A     -0.425868
      16A     -0.411694    17A     -0.403613    18A     -0.386240
      19A     -0.372509    20A     -0.350808    21A     -0.329220
      22A     -0.272822    23A     -0.225630

  @DF-RKS Final Energy:  -234.62276767729335

   => Energetics <=

    Nuclear Repulsion Energy =            224.2611896080417466
    One-Electron Energy =                -758.2845972137635044
    Two-Electron Energy =                 328.7246108772741877
    DFT Exchange-Correlation Energy =     -29.3239709488457549
    Empirical Dispersion Energy =           0.0000000000000000
    VV10 Nonlocal Energy =                  0.0000000000000000
    Total Energy =                       -234.6227676772933535

  Dipole Moment: [D]
     X:    -0.4533      Y:    -0.4579      Z:     0.0505     Total:     0.6463

    Molecular point group: c1

    Geometry (in Angstrom), charge = 0, multiplicity = 1:

       Center              X                  Y                   Z               Mass
    ------------   -----------------  -----------------  -----------------  -----------------
         C           -1.790044780012     0.198056289197     0.644608978967    12.000000000000
         C           -0.462090736381     0.586999299097     0.031822742533    12.000000000000
         C            0.593625021155    -0.463284102961    -0.045875596906    12.000000000000
         C           -0.249762493275     1.824716354250    -0.437953244912    12.000000000000
         C            0.165360902939    -1.854301483028    -0.460488844848    12.000000000000
         C            1.871360481597    -0.190793432759     0.255532222866    12.000000000000
         H           -2.296681293485    -0.575715172553     0.053534660208     1.007825032230
         H           -2.460150858396     1.060358299348     0.709750373839     1.007825032230
         H           -1.658602527714    -0.210987130129     1.655036992195     1.007825032230
         H            0.682512496580     2.098230094198    -0.923024138481     1.007825032230
         H           -1.009523956416     2.598744854139    -0.361591689555     1.007825032230
         H           -0.527910364329    -2.297017898509     0.266240867118     1.007825032230
         H            1.028146131767    -2.521266140481    -0.547681462362     1.007825032230
         H           -0.355770388584    -1.839887661805    -1.426797009843     1.007825032230
         H            2.647411307496    -0.950534775358     0.176818300043     1.007825032230
         H            2.178121057060     0.793682607352     0.601066849139     1.007825032230

  Basis Set: 6-31G*
    Blend: 6-31G*
  Basis Set: (6-31G* AUX)
    Blend: CC-PVDZ-JKFIT

  -Total Gradient:
     Atom            X                  Y                   Z
    ------   -----------------  -----------------  -----------------
       1        0.000001296526     0.000004050820    -0.000015918544
       2        0.000036918334     0.000005821445     0.000032511610
       3        0.000005982655     0.000025136729    -0.000012296683
       4       -0.000006094510    -0.000013239841     0.000014758715
       5        0.000012951084     0.000002651674     0.000000517254
       6       -0.000857887695    -0.000188061661    -0.000228832080
       7       -0.000016178293    -0.000020749111    -0.000010546359
       8       -0.000005256881     0.000007674040     0.000002031330
       9        0.000006575422    -0.000003480093     0.000016893505
      10        0.000011034193     0.000002703105    -0.000011106893
      11       -0.000003221494    -0.000003528186    -0.000003531637
      12       -0.000015083623    -0.000007489145     0.000015025240
      13        0.000006345485    -0.000004393207    -0.000003103779
      14       -0.000004500044     0.000001721639    -0.000012773306
      15        0.000665646263    -0.000889532057    -0.000130800066
      16        0.000154469094     0.001073756864     0.000347955108

  Vibration                       7                   8                   9
  Freq [cm^-1]                 78.2470             183.6439            217.1810
  Irrep                           A                   A                   A
  Reduced mass [u]              2.7598              1.0200              1.1765
  Force const [mDyne/A]         0.0100              0.0203              0.0327

  Vibration                       10                  11                  12
  Freq [cm^-1]                 265.4292            286.1546            371.6981
  Irrep                           A                   A                   A
  Reduced mass [u]              2.0881              2.7833              2.4343
  Force const [mDyne/A]         0.0867              0.1343              0.1982

  Vibration                       13                  14                  15
  Freq [cm^-1]                 460.4103            526.4192            566.8313
  Irrep                           A                   A                   A
  Reduced mass [u]              2.1211              2.7699              1.9825
  Force const [mDyne/A]         0.2649              0.4522              0.3753

  Vibration                       16                  17                  18
  Freq [cm^-1]                 713.4510            726.1075            787.7032
  Irrep                           A                   A                   A
  Reduced mass [u]              1.0314              3.1460              1.2212
  Force const [mDyne/A]         0.3093              0.9773              0.4464

  Vibration                       19                  20                  21
  Freq [cm^-1]                 925.0492            925.4673            935.9405
  Irrep                           A                   A                   A
  Reduced mass [u]              1.3720              1.3549              2.0348
  Force const [mDyne/A]         0.6917              0.6837              1.0502

  Vibration                       22                  23                  24
  Freq [cm^-1]                 987.2072           1026.6217           1048.4927
  Irrep                           A                   A                   A
  Reduced mass [u]              1.6678              1.3068              1.3927
  Force const [mDyne/A]         0.9576              0.8115              0.9020

  Vibration                       25                  26                  27
  Freq [cm^-1]                1081.5743           1089.2922           1227.3523
  Irrep                           A                   A                   A
  Reduced mass [u]              1.4557              1.5498              2.2457
  Force const [mDyne/A]         1.0033              1.0835              1.9932

  Vibration                       28                  29                  30
  Freq [cm^-1]                1330.3376           1431.3426           1442.2979
  Irrep                           A                   A                   A
  Reduced mass [u]              3.3383              1.1964              1.2508
  Force const [mDyne/A]         3.4810              1.4441              1.5330

  Vibration                       31                  32                  33
  Freq [cm^-1]                1460.1010           1472.7750           1507.9588
  Irrep                           A                   A                   A
  Reduced mass [u]              1.2691              1.2291              1.0445
  Force const [mDyne/A]         1.5941              1.5707              1.3994

  Vibration                       34                  35                  36
  Freq [cm^-1]                1511.2324           1525.5048           1531.6260
  Irrep                           A                   A                   A
  Reduced mass [u]              1.0473              1.0517              1.0581
  Force const [mDyne/A]         1.4092              1.4420              1.4625

  Vibration                       37                  38                  39
  Freq [cm^-1]                1696.9554           1722.3131           3036.3437
  Irrep                           A                   A                   A
  Reduced mass [u]              4.8246              4.7267              1.0381
  Force const [mDyne/A]         8.1857              8.2610              5.6388

  Vibration                       40                  41                  42
  Freq [cm^-1]                3039.6559           3085.8757           3088.0470
  Irrep                           A                   A                   A
  Reduced mass [u]              1.0380              1.1001              1.0997
  Force const [mDyne/A]         5.6505              6.1721              6.1788

  Vibration                       43                  44                  45
  Freq [cm^-1]                3128.3084           3129.9553           3161.7975
  Irrep                           A                   A                   A
  Reduced mass [u]              1.1001              1.1004              1.0605
  Force const [mDyne/A]         6.3430              6.3515              6.2464

  Vibration                       46                  47                  48
  Freq [cm^-1]                3163.4488           3243.1977           3245.2888
  Irrep                           A                   A                   A
  Reduced mass [u]              1.0596              1.1156              1.1152
  Force const [mDyne/A]         6.2478              6.9137              6.9203

  ==> Thermochemistry Components <==

  Entropy, S
    Electronic S            0.000 [cal/(mol K)]        0.000 [J/(mol K)]       0.00000000 [mEh/K] (multiplicity = 1)
    Translational S        39.129 [cal/(mol K)]      163.717 [J/(mol K)]       0.06235649 [mEh/K] (mol. weight = 82.0783 [u], P = 101325.00 [Pa])
    Rotational S           26.732 [cal/(mol K)]      111.846 [J/(mol K)]       0.04259978 [mEh/K] (symmetry no. = 1)
    Vibrational S          15.996 [cal/(mol K)]       66.925 [J/(mol K)]       0.02549055 [mEh/K]
  Total S                  81.857 [cal/(mol K)]      342.488 [J/(mol K)]       0.13044682 [mEh/K]
  Correction S              0.000 [cal/(mol K)]        0.000 [J/(mol K)]       0.00000000 [mEh/K]

  Constant volume heat capacity, Cv
    Electronic Cv           0.000 [cal/(mol K)]        0.000 [J/(mol K)]       0.00000000 [mEh/K]
    Translational Cv        2.981 [cal/(mol K)]       12.472 [J/(mol K)]       0.00475022 [mEh/K]
    Rotational Cv           2.981 [cal/(mol K)]       12.472 [J/(mol K)]       0.00475022 [mEh/K]
    Vibrational Cv         20.562 [cal/(mol K)]       86.030 [J/(mol K)]       0.03276719 [mEh/K]
  Total Cv                 26.523 [cal/(mol K)]      110.974 [J/(mol K)]       0.04226762 [mEh/K]
  Correction Cv             0.000 [cal/(mol K)]        0.000 [J/(mol K)]       0.00000000 [mEh/K]

  Constant pressure heat capacity, Cp
    Electronic Cp           0.000 [cal/(mol K)]        0.000 [J/(mol K)]       0.00000000 [mEh/K]
    Translational Cp        4.968 [cal/(mol K)]       20.786 [J/(mol K)]       0.00791703 [mEh/K]
    Rotational Cp           2.981 [cal/(mol K)]       12.472 [J/(mol K)]       0.00475022 [mEh/K]
    Vibrational Cp         20.562 [cal/(mol K)]       86.030 [J/(mol K)]       0.03276719 [mEh/K]
  Total Cp                 28.511 [cal/(mol K)]      119.288 [J/(mol K)]       0.04543443 [mEh/K]
  Correction Cp             0.000 [cal/(mol K)]        0.000 [J/(mol K)]       0.00000000 [mEh/K]

  ==> Thermochemistry Energy Analysis <==

  Raw electronic energy, E0
  Total E0, Electronic energy at well bottom at 0 [K]                 -234.62277137 [Eh]

  Zero-point energy, ZPE_vib = Sum_i nu_i / 2
    Electronic ZPE          0.000 [kcal/mol]        0.000 [kJ/mol]       0.00000000 [Eh]
    Translational ZPE       0.000 [kcal/mol]        0.000 [kJ/mol]       0.00000000 [Eh]
    Rotational ZPE          0.000 [kcal/mol]        0.000 [kJ/mol]       0.00000000 [Eh]
    Vibrational ZPE        89.183 [kcal/mol]      373.143 [kJ/mol]       0.14212266 [Eh]       31192.318 [cm^-1]
  Correction ZPE           89.183 [kcal/mol]      373.143 [kJ/mol]       0.14212266 [Eh]       31192.318 [cm^-1]
  Total ZPE, Electronic energy at 0 [K]                               -234.48064871 [Eh]

  Thermal Energy, E (includes ZPE)
    Electronic E            0.000 [kcal/mol]        0.000 [kJ/mol]       0.00000000 [Eh]
    Translational E         0.889 [kcal/mol]        3.718 [kJ/mol]       0.00141628 [Eh]
    Rotational E            0.889 [kcal/mol]        3.718 [kJ/mol]       0.00141628 [Eh]
    Vibrational E          91.971 [kcal/mol]      384.806 [kJ/mol]       0.14656505 [Eh]
  Correction E             93.748 [kcal/mol]      392.243 [kJ/mol]       0.14939760 [Eh]
  Total E, Electronic energy at  298.15 [K]                           -234.47337376 [Eh]

  Enthalpy, H_trans = E_trans + k_B * T
    Electronic H            0.000 [kcal/mol]        0.000 [kJ/mol]       0.00000000 [Eh]
    Translational H         1.481 [kcal/mol]        6.197 [kJ/mol]       0.00236046 [Eh]
    Rotational H            0.889 [kcal/mol]        3.718 [kJ/mol]       0.00141628 [Eh]
    Vibrational H          91.971 [kcal/mol]      384.806 [kJ/mol]       0.14656505 [Eh]
  Correction H             94.341 [kcal/mol]      394.722 [kJ/mol]       0.15034179 [Eh]
  Total H, Enthalpy at  298.15 [K]                                    -234.47242958 [Eh]

  Gibbs free energy, G = H - T * S
    Electronic G            0.000 [kcal/mol]        0.000 [kJ/mol]       0.00000000 [Eh]
    Translational G       -10.185 [kcal/mol]      -42.615 [kJ/mol]      -0.01623113 [Eh]
    Rotational G           -7.081 [kcal/mol]      -29.628 [kJ/mol]      -0.01128485 [Eh]
    Vibrational G          87.202 [kcal/mol]      364.853 [kJ/mol]       0.13896504 [Eh]
  Correction G             69.935 [kcal/mol]      292.609 [kJ/mol]       0.11144907 [Eh]
  Total G, Free enthalpy at  298.15 [K]                               -234.51132230 [Eh]

*** Psi4 exiting successfully. Buy a developer a beer!
